# vtk DataFile Version 2.0
Seismology data
ASCII
           
DATASET UNSTRUCTURED_GRID
POINTS      8 float
          150.3461000          -12.0592000            0.0000000
          155.9789000          -17.2604000            0.0000000
          159.8392000          -20.4196000            0.0000000
          165.9598000          -20.6495000            0.0000000
          164.9535000          -22.8730000            0.0000000
          164.3029000          -28.4435000            0.0000000
          160.8692000          -28.8476000            0.0000000
          166.3863000          -17.1891000            0.0000000
           
POINT_DATA      8
SCALARS LVL float 
LOOKUP_TABLE default
    351.50000
    353.60000
    373.20000
    332.50000
    365.70000
    380.70000
    360.50000
    298.10000
SCALARS TZ float 
LOOKUP_TABLE default
    424.10000
    419.00000
    416.60000
    424.60000
    404.60000
    427.00000
    423.40000
    418.60000
SCALARS Temperature float 
LOOKUP_TABLE default
   1748.49463
   1688.17204
   1659.78494
   1754.40860
   1517.84946
   1782.79570
   1740.21506
   1683.44086
SCALARS vs_obs float 
LOOKUP_TABLE default
   4571.07246
   4643.98992
   4686.13053
   4637.83455
   4601.37582
   4572.96642
   4494.36708
   4619.36844
SCALARS vs_sol float 
LOOKUP_TABLE default
   4659.18054
   4686.35908
   4699.76343
   4656.61156
   4772.68381
   4644.51803
   4662.80579
   4688.56583
SCALARS melt float 
LOOKUP_TABLE default
      0.00692
      0.00268
      0.00050
      0.00083
      0.01434
      0.00539
      0.01445
      0.00510
