# vtk DataFile Version 2.0
Seismology data
ASCII
           
DATASET UNSTRUCTURED_GRID
POINTS      8 float
          150.3461000          -12.0592000            0.0000000
          155.9789000          -17.2604000            0.0000000
          159.8392000          -20.4196000            0.0000000
          165.9598000          -20.6495000            0.0000000
          164.9535000          -22.8730000            0.0000000
          164.3029000          -28.4435000            0.0000000
          160.8692000          -28.8476000            0.0000000
          166.3863000          -17.1891000            0.0000000
           
POINT_DATA      8
SCALARS LVL float 
LOOKUP_TABLE default
    351.50000
    353.60000
    373.20000
    332.50000
    365.70000
    380.70000
    360.50000
    298.10000
SCALARS TZ float 
LOOKUP_TABLE default
    424.10000
    419.00000
    416.60000
    424.60000
    404.60000
    427.00000
    423.40000
    418.60000
SCALARS Temperature float 
LOOKUP_TABLE default
   1548.49463
   1488.17204
   1459.78494
   1554.40860
   1317.84946
   1582.79570
   1540.21506
   1483.44086
SCALARS vs_obs float 
LOOKUP_TABLE default
   4571.07246
   4643.98992
   4686.13053
   4637.83455
   4601.37582
   4572.96642
   4494.36708
   4619.36844
SCALARS vs_sol float 
LOOKUP_TABLE default
   4767.51149
   4807.29303
   4826.85987
   4763.74296
   4932.81682
   4745.98117
   4772.82692
   4810.51656
SCALARS melt float 
LOOKUP_TABLE default
      0.01658
      0.01346
      0.01137
      0.01019
      0.02754
      0.01454
      0.02384
      0.01594
