# vtk DataFile Version 2.0
Seismology data
ASCII
           
DATASET UNSTRUCTURED_GRID
POINTS      0 float
           
POINT_DATA      0
SCALARS LVL float 
LOOKUP_TABLE default
SCALARS TZ float 
LOOKUP_TABLE default
SCALARS Temperature float 
LOOKUP_TABLE default
SCALARS vs_obs float 
LOOKUP_TABLE default
SCALARS vs_sol float 
LOOKUP_TABLE default
SCALARS melt float 
LOOKUP_TABLE default
