# vtk DataFile Version 2.0
Seismology data
ASCII
           
DATASET UNSTRUCTURED_GRID
POINTS     28 float
           19.0790000         -155.7730000            0.0000000
           20.7710000         -155.9970000            0.0000000
           20.0460000         -155.7110000            0.0000000
           21.9710000         -159.4010000            0.0000000
           21.4230000         -158.0150000            0.0000000
           20.8910000         -156.6580000            0.0000000
           20.7670000         -156.2450000            0.0000000
           21.1090000         -157.2700000            0.0000000
           22.1230000         -159.6650000            0.0000000
           20.4999000         -154.9375000            0.0000000
           21.5070000         -154.9944000            0.0000000
           21.5197000         -153.9827000            0.0000000
           20.8926000         -153.2920000            0.0000000
           18.7976000         -153.9923000            0.0000000
           18.8009000         -153.2959000            0.0000000
           18.4814000         -152.1324000            0.0000000
           17.9884000         -154.0305000            0.0000000
           18.8031000         -154.7974000            0.0000000
           18.0003000         -155.7150000            0.0000000
           18.4042000         -156.8082000            0.0000000
           18.9831000         -157.2286000            0.0000000
           19.4777000         -156.5101000            0.0000000
           19.8327000         -156.9320000            0.0000000
           19.8234000         -160.0475000            0.0000000
           21.9563000         -161.3149000            0.0000000
           22.6217000         -158.1842000            0.0000000
           14.6596000         -157.8591000            0.0000000
           16.3484000         -157.7008000            0.0000000
           
POINT_DATA     28
SCALARS LVL topography float 
LOOKUP_TABLE default
    370.00000
    345.00000
    330.00000
    325.00000
    337.00000
    390.00000
    387.00000
    340.00000
    340.00000
    325.00000
    485.00000
    345.00000
    340.00000
    355.00000
    325.00000
    390.00000
    335.00000
    355.00000
    365.00000
    312.00000
    330.00000
    330.00000
    340.00000
    345.00000
    340.00000
    392.00000
    362.00000
    405.00000
SCALARS 410 topography float 
LOOKUP_TABLE default
    370.00000
    345.00000
    330.00000
    325.00000
    337.00000
    390.00000
    387.00000
    340.00000
    340.00000
    325.00000
    485.00000
    345.00000
    340.00000
    355.00000
    325.00000
    390.00000
    335.00000
    355.00000
    365.00000
    312.00000
    330.00000
    330.00000
    340.00000
    345.00000
    340.00000
    392.00000
    362.00000
    405.00000
SCALARS temperature float 
LOOKUP_TABLE default
    800.00000
    550.00000
    400.00000
    350.00000
    470.00000
   1000.00000
    970.00000
    500.00000
    500.00000
    350.00000
   1950.00000
    550.00000
    500.00000
    650.00000
    350.00000
   1000.00000
    450.00000
    650.00000
    750.00000
    220.00000
    400.00000
    400.00000
    500.00000
    550.00000
    500.00000
   1020.00000
    720.00000
   1150.00000
