# vtk DataFile Version 2.0
Seismology data
ASCII
           
DATASET UNSTRUCTURED_GRID
POINTS     27 float
         -153.9923000           18.7976000            0.0000000
         -155.7730000           19.0790000            0.0000000
         -154.0305000           17.9884000            0.0000000
         -152.9812000           18.3018000            0.0000000
         -154.9375000           20.4999000            0.0000000
         -157.2700000           21.1090000            0.0000000
         -156.7560000           21.1360000            0.0000000
         -158.1842000           22.6217000            0.0000000
         -155.7150000           18.0003000            0.0000000
         -156.8082000           18.4042000            0.0000000
         -153.6925000           17.1803000            0.0000000
         -161.3149000           21.9563000            0.0000000
         -154.9944000           21.5070000            0.0000000
         -157.2286000           18.9831000            0.0000000
         -156.6580000           20.8910000            0.0000000
         -155.7110000           20.0460000            0.0000000
         -157.8591000           14.6596000            0.0000000
         -151.6866000           14.6891000            0.0000000
         -159.6650000           22.1230000            0.0000000
         -155.5325000           19.7575000            0.0000000
         -156.4651000           18.7750000            0.0000000
         -154.5828000           21.0000000            0.0000000
         -156.2450000           20.7670000            0.0000000
         -156.5101000           19.4777000            0.0000000
         -153.9827000           21.5197000            0.0000000
         -159.4010000           21.9710000            0.0000000
         -156.9320000           19.8327000            0.0000000
           
POINT_DATA     27
SCALARS LVL float 
LOOKUP_TABLE default
    355.00000
    370.00000
    335.00000
    325.00000
    325.00000
    340.00000
    370.00000
    392.00000
    365.00000
    312.00000
    405.00000
    340.00000
    385.00000
    330.00000
    390.00000
    330.00000
    362.00000
    377.00000
    340.00000
    400.00000
    387.00000
    325.00000
    387.00000
    330.00000
    345.00000
    325.00000
    340.00000
SCALARS TZ float 
LOOKUP_TABLE default
    410.00000
    440.00000
    390.00000
    445.00000
    412.00000
    370.00000
    410.00000
    452.00000
    440.00000
    395.00000
    472.00000
    402.00000
    425.00000
    392.00000
    415.00000
    407.00000
    415.00000
    410.00000
    380.00000
    432.00000
    420.00000
    417.00000
    437.00000
    455.00000
    410.00000
    392.00000
    425.00000
SCALARS Temperature float 
LOOKUP_TABLE default
   1104.30107
   1459.13979
    867.74192
   1518.27957
   1127.95698
    631.18277
   1104.30107
   1601.07528
   1459.13979
    926.88171
   1837.63442
   1009.67741
   1281.72043
    891.39783
   1163.44085
   1068.81719
   1163.44085
   1104.30107
    749.46235
   1364.51613
   1222.58064
   1187.09677
   1423.65591
   1636.55915
   1104.30107
    891.39783
   1281.72043
SCALARS vs_obs float 
LOOKUP_TABLE default
   4441.37809
   4442.84780
   4444.18830
   4444.75358
   4516.30095
   4537.29680
   4543.49865
   4546.59957
   4552.84988
   4564.72060
   4590.33553
   4593.09729
   4594.16324
   4614.70686
   4617.66243
   4620.56955
   4637.25317
   4638.98129
   4643.92339
   4646.55595
   4655.56801
   4655.64876
   4669.40912
   4673.80209
   4674.78728
   4706.65251
   4706.84632
SCALARS vs_sol float 
LOOKUP_TABLE default
   5117.74063
   4827.31086
   5358.36707
   4787.13205
   5095.74628
   5636.59879
   5117.74063
   4734.83028
   4827.31086
   5294.68497
   4610.78019
   5209.47858
   4961.94926
   5332.61219
   5063.45985
   5151.43726
   5063.45985
   5117.74063
   5492.78227
   4896.48564
   5011.52939
   5042.40562
   4852.54631
   4713.82543
   5117.74063
   5332.61219
   4961.94926
SCALARS melt float 
LOOKUP_TABLE default
      0.03819
      0.02265
      0.04975
      0.02028
      0.03265
      0.05688
      0.03220
      0.01095
      0.01598
      0.03987
      0.00060
      0.03400
      0.02100
      0.03888
      0.02506
      0.02947
      0.02393
      0.02667
      0.04487
      0.01426
      0.02009
      0.02174
      0.01033
      0.00160
      0.02461
      0.03370
      0.01436
