# vtk DataFile Version 2.0
Seismology data
ASCII
           
DATASET UNSTRUCTURED_GRID
POINTS     27 float
         -153.9923000           18.7976000            0.0000000
         -155.7730000           19.0790000            0.0000000
         -154.0305000           17.9884000            0.0000000
         -152.9812000           18.3018000            0.0000000
         -154.9375000           20.4999000            0.0000000
         -157.2700000           21.1090000            0.0000000
         -156.7560000           21.1360000            0.0000000
         -158.1842000           22.6217000            0.0000000
         -155.7150000           18.0003000            0.0000000
         -156.8082000           18.4042000            0.0000000
         -153.6925000           17.1803000            0.0000000
         -161.3149000           21.9563000            0.0000000
         -154.9944000           21.5070000            0.0000000
         -157.2286000           18.9831000            0.0000000
         -156.6580000           20.8910000            0.0000000
         -155.7110000           20.0460000            0.0000000
         -157.8591000           14.6596000            0.0000000
         -151.6866000           14.6891000            0.0000000
         -159.6650000           22.1230000            0.0000000
         -155.5325000           19.7575000            0.0000000
         -156.4651000           18.7750000            0.0000000
         -154.5828000           21.0000000            0.0000000
         -156.2450000           20.7670000            0.0000000
         -156.5101000           19.4777000            0.0000000
         -153.9827000           21.5197000            0.0000000
         -159.4010000           21.9710000            0.0000000
         -156.9320000           19.8327000            0.0000000
           
POINT_DATA     27
SCALARS LVL float 
LOOKUP_TABLE default
    355.00000
    370.00000
    335.00000
    325.00000
    325.00000
    340.00000
    370.00000
    392.00000
    365.00000
    312.00000
    405.00000
    340.00000
    385.00000
    330.00000
    390.00000
    330.00000
    362.00000
    377.00000
    340.00000
    400.00000
    387.00000
    325.00000
    387.00000
    330.00000
    345.00000
    325.00000
    340.00000
SCALARS TZ float 
LOOKUP_TABLE default
    410.00000
    440.00000
    390.00000
    445.00000
    412.00000
    370.00000
    410.00000
    452.00000
    440.00000
    395.00000
    472.00000
    402.00000
    425.00000
    392.00000
    415.00000
    407.00000
    415.00000
    410.00000
    380.00000
    432.00000
    420.00000
    417.00000
    437.00000
    455.00000
    410.00000
    392.00000
    425.00000
SCALARS Temperature float 
LOOKUP_TABLE default
   1504.30107
   1859.13979
   1267.74192
   1918.27957
   1527.95698
   1031.18277
   1504.30107
   2001.07528
   1859.13979
   1326.88171
   2237.63442
   1409.67741
   1681.72043
   1291.39783
   1563.44085
   1468.81719
   1563.44085
   1504.30107
   1149.46235
   1764.51613
   1622.58064
   1587.09677
   1823.65591
   2036.55915
   1504.30107
   1291.39783
   1681.72043
SCALARS vs_obs float 
LOOKUP_TABLE default
   4441.37809
   4442.84780
   4444.18830
   4444.75358
   4516.30095
   4537.29680
   4543.49865
   4546.59957
   4552.84988
   4564.72060
   4590.33553
   4593.09729
   4594.16324
   4614.70686
   4617.66243
   4620.56955
   4637.25317
   4638.98129
   4643.92339
   4646.55595
   4655.56801
   4655.64876
   4669.40912
   4673.80209
   4674.78728
   4706.65251
   4706.84632
SCALARS vs_sol float 
LOOKUP_TABLE default
   4780.53156
   4624.52653
   4914.19384
   4603.71600
   4768.47033
   5071.58326
   4780.53156
   4577.07261
   4624.52653
   4878.55385
   4516.96446
   4831.14922
   4695.85579
   4899.75989
   4750.82336
   4799.06830
   4750.82336
   4780.53156
   4989.92266
   4660.90790
   4722.59810
   4739.35530
   4637.72466
   4566.54378
   4780.53156
   4899.75989
   4695.85579
SCALARS melt float 
LOOKUP_TABLE default
      0.02128
      0.01143
      0.02895
      0.00993
      0.01567
      0.03198
      0.01464
      0.00119
      0.00384
      0.01922
      0.00000
      0.01454
      0.00581
      0.01730
      0.00784
      0.01075
      0.00652
      0.00835
      0.02076
      0.00035
      0.00342
      0.00452
      0.00000
      0.00000
      0.00595
      0.01144
      0.00000
