# vtk DataFile Version 2.0
Seismology data
ASCII
           
DATASET UNSTRUCTURED_GRID
POINTS     27 float
         -153.9923000           18.7976000            0.0000000
         -155.7730000           19.0790000            0.0000000
         -154.0305000           17.9884000            0.0000000
         -152.9812000           18.3018000            0.0000000
         -154.9375000           20.4999000            0.0000000
         -157.2700000           21.1090000            0.0000000
         -156.7560000           21.1360000            0.0000000
         -158.1842000           22.6217000            0.0000000
         -155.7150000           18.0003000            0.0000000
         -156.8082000           18.4042000            0.0000000
         -153.6925000           17.1803000            0.0000000
         -161.3149000           21.9563000            0.0000000
         -154.9944000           21.5070000            0.0000000
         -157.2286000           18.9831000            0.0000000
         -156.6580000           20.8910000            0.0000000
         -155.7110000           20.0460000            0.0000000
         -157.8591000           14.6596000            0.0000000
         -151.6866000           14.6891000            0.0000000
         -159.6650000           22.1230000            0.0000000
         -155.5325000           19.7575000            0.0000000
         -156.4651000           18.7750000            0.0000000
         -154.5828000           21.0000000            0.0000000
         -156.2450000           20.7670000            0.0000000
         -156.5101000           19.4777000            0.0000000
         -153.9827000           21.5197000            0.0000000
         -159.4010000           21.9710000            0.0000000
         -156.9320000           19.8327000            0.0000000
           
POINT_DATA     27
SCALARS LVL float 
LOOKUP_TABLE default
    355.00000
    370.00000
    335.00000
    325.00000
    325.00000
    340.00000
    370.00000
    392.00000
    365.00000
    312.00000
    405.00000
    340.00000
    385.00000
    330.00000
    390.00000
    330.00000
    362.00000
    377.00000
    340.00000
    400.00000
    387.00000
    325.00000
    387.00000
    330.00000
    345.00000
    325.00000
    340.00000
SCALARS TZ float 
LOOKUP_TABLE default
    410.00000
    440.00000
    390.00000
    445.00000
    412.00000
    370.00000
    410.00000
    452.00000
    440.00000
    395.00000
    472.00000
    402.00000
    425.00000
    392.00000
    415.00000
    407.00000
    415.00000
    410.00000
    380.00000
    432.00000
    420.00000
    417.00000
    437.00000
    455.00000
    410.00000
    392.00000
    425.00000
SCALARS Temperature float 
LOOKUP_TABLE default
   1404.30107
   1759.13979
   1167.74192
   1818.27957
   1427.95698
    931.18277
   1404.30107
   1901.07528
   1759.13979
   1226.88171
   2137.63442
   1309.67741
   1581.72043
   1191.39783
   1463.44085
   1368.81719
   1463.44085
   1404.30107
   1049.46235
   1664.51613
   1522.58064
   1487.09677
   1723.65591
   1936.55915
   1404.30107
   1191.39783
   1581.72043
SCALARS vs_obs float 
LOOKUP_TABLE default
   4441.37809
   4442.84780
   4444.18830
   4444.75358
   4516.30095
   4537.29680
   4543.49865
   4546.59957
   4552.84988
   4564.72060
   4590.33553
   4593.09729
   4594.16324
   4614.70686
   4617.66243
   4620.56955
   4637.25317
   4638.98129
   4643.92339
   4646.55595
   4655.56801
   4655.64876
   4669.40912
   4673.80209
   4674.78728
   4706.65251
   4706.84632
SCALARS vs_sol float 
LOOKUP_TABLE default
   4834.13920
   4663.08900
   4977.83158
   4639.77094
   4821.07495
   5145.25111
   4834.13920
   4609.61702
   4663.08900
   4939.68407
   4539.47876
   4888.76889
   4741.94084
   4962.39462
   4801.92346
   4854.18045
   4801.92346
   4834.13920
   5058.57545
   4703.48241
   4771.19068
   4789.45240
   4677.79165
   4597.58367
   4834.13920
   4962.39462
   4741.94084
SCALARS melt float 
LOOKUP_TABLE default
      0.02447
      0.01392
      0.03258
      0.01230
      0.01888
      0.03604
      0.01792
      0.00327
      0.00645
      0.02280
      0.00000
      0.01802
      0.00884
      0.02098
      0.01112
      0.01418
      0.00983
      0.01175
      0.02467
      0.00277
      0.00663
      0.00781
      0.00015
      0.00000
      0.00941
      0.01523
      0.00139
