# vtk DataFile Version 2.0
Seismology data
ASCII
           
DATASET UNSTRUCTURED_GRID
POINTS     27 float
         -153.9923000           18.7976000            0.0000000
         -155.7730000           19.0790000            0.0000000
         -154.0305000           17.9884000            0.0000000
         -152.9812000           18.3018000            0.0000000
         -154.9375000           20.4999000            0.0000000
         -157.2700000           21.1090000            0.0000000
         -156.7560000           21.1360000            0.0000000
         -158.1842000           22.6217000            0.0000000
         -155.7150000           18.0003000            0.0000000
         -156.8082000           18.4042000            0.0000000
         -153.6925000           17.1803000            0.0000000
         -161.3149000           21.9563000            0.0000000
         -154.9944000           21.5070000            0.0000000
         -157.2286000           18.9831000            0.0000000
         -156.6580000           20.8910000            0.0000000
         -155.7110000           20.0460000            0.0000000
         -157.8591000           14.6596000            0.0000000
         -151.6866000           14.6891000            0.0000000
         -159.6650000           22.1230000            0.0000000
         -155.5325000           19.7575000            0.0000000
         -156.4651000           18.7750000            0.0000000
         -154.5828000           21.0000000            0.0000000
         -156.2450000           20.7670000            0.0000000
         -156.5101000           19.4777000            0.0000000
         -153.9827000           21.5197000            0.0000000
         -159.4010000           21.9710000            0.0000000
         -156.9320000           19.8327000            0.0000000
           
POINT_DATA     27
SCALARS LVL float 
LOOKUP_TABLE default
    355.00000
    370.00000
    335.00000
    325.00000
    325.00000
    340.00000
    370.00000
    392.00000
    365.00000
    312.00000
    405.00000
    340.00000
    385.00000
    330.00000
    390.00000
    330.00000
    362.00000
    377.00000
    340.00000
    400.00000
    387.00000
    325.00000
    387.00000
    330.00000
    345.00000
    325.00000
    340.00000
SCALARS TZ float 
LOOKUP_TABLE default
    410.00000
    440.00000
    390.00000
    445.00000
    412.00000
    370.00000
    410.00000
    452.00000
    440.00000
    395.00000
    472.00000
    402.00000
    425.00000
    392.00000
    415.00000
    407.00000
    415.00000
    410.00000
    380.00000
    432.00000
    420.00000
    417.00000
    437.00000
    455.00000
    410.00000
    392.00000
    425.00000
SCALARS Temperature float 
LOOKUP_TABLE default
   1804.30107
   2159.13979
   1567.74192
   2218.27957
   1827.95698
   1331.18277
   1804.30107
   2301.07528
   2159.13979
   1626.88171
   2537.63442
   1709.67741
   1981.72043
   1591.39783
   1863.44085
   1768.81719
   1863.44085
   1804.30107
   1449.46235
   2064.51613
   1922.58064
   1887.09677
   2123.65591
   2336.55915
   1804.30107
   1591.39783
   1981.72043
SCALARS vs_obs float 
LOOKUP_TABLE default
   4441.37809
   4442.84780
   4444.18830
   4444.75358
   4516.30095
   4537.29680
   4543.49865
   4546.59957
   4552.84988
   4564.72060
   4590.33553
   4593.09729
   4594.16324
   4614.70686
   4617.66243
   4620.56955
   4637.25317
   4638.98129
   4643.92339
   4646.55595
   4655.56801
   4655.64876
   4669.40912
   4673.80209
   4674.78728
   4706.65251
   4706.84632
SCALARS vs_sol float 
LOOKUP_TABLE default
   4598.59990
   4469.84304
   4740.53793
   4458.20109
   4586.87450
   4927.35607
   4598.59990
   4446.61476
   4469.84304
   4700.84591
   4443.80505
   4649.98950
   4521.59894
   4724.32452
   4570.12790
   4617.02949
   4570.12790
   4598.59990
   4828.33699
   4494.30458
   4544.46092
   4559.52451
   4478.17462
   4443.33220
   4598.59990
   4724.32452
   4521.59894
SCALARS melt float 
LOOKUP_TABLE default
      0.01079
      0.00114
      0.02054
      0.00039
      0.00419
      0.02621
      0.00302
      0.00000
      0.00000
      0.00894
      0.00000
      0.00310
      0.00000
      0.00692
      0.00000
      0.00000
      0.00000
      0.00000
      0.01216
      0.00000
      0.00000
      0.00000
      0.00000
      0.00000
      0.00000
      0.00054
      0.00000
