# vtk DataFile Version 2.0
Seismology data
ASCII
           
DATASET UNSTRUCTURED_GRID
POINTS     27 float
         -153.9923000           18.7976000            0.0000000
         -155.7730000           19.0790000            0.0000000
         -154.0305000           17.9884000            0.0000000
         -152.9812000           18.3018000            0.0000000
         -154.9375000           20.4999000            0.0000000
         -157.2700000           21.1090000            0.0000000
         -156.7560000           21.1360000            0.0000000
         -158.1842000           22.6217000            0.0000000
         -155.7150000           18.0003000            0.0000000
         -156.8082000           18.4042000            0.0000000
         -153.6925000           17.1803000            0.0000000
         -161.3149000           21.9563000            0.0000000
         -154.9944000           21.5070000            0.0000000
         -157.2286000           18.9831000            0.0000000
         -156.6580000           20.8910000            0.0000000
         -155.7110000           20.0460000            0.0000000
         -157.8591000           14.6596000            0.0000000
         -151.6866000           14.6891000            0.0000000
         -159.6650000           22.1230000            0.0000000
         -155.5325000           19.7575000            0.0000000
         -156.4651000           18.7750000            0.0000000
         -154.5828000           21.0000000            0.0000000
         -156.2450000           20.7670000            0.0000000
         -156.5101000           19.4777000            0.0000000
         -153.9827000           21.5197000            0.0000000
         -159.4010000           21.9710000            0.0000000
         -156.9320000           19.8327000            0.0000000
           
POINT_DATA     27
SCALARS LVL float 
LOOKUP_TABLE default
    355.00000
    370.00000
    335.00000
    325.00000
    325.00000
    340.00000
    370.00000
    392.00000
    365.00000
    312.00000
    405.00000
    340.00000
    385.00000
    330.00000
    390.00000
    330.00000
    362.00000
    377.00000
    340.00000
    400.00000
    387.00000
    325.00000
    387.00000
    330.00000
    345.00000
    325.00000
    340.00000
SCALARS TZ float 
LOOKUP_TABLE default
    410.00000
    440.00000
    390.00000
    445.00000
    412.00000
    370.00000
    410.00000
    452.00000
    440.00000
    395.00000
    472.00000
    402.00000
    425.00000
    392.00000
    415.00000
    407.00000
    415.00000
    410.00000
    380.00000
    432.00000
    420.00000
    417.00000
    437.00000
    455.00000
    410.00000
    392.00000
    425.00000
SCALARS Temperature float 
LOOKUP_TABLE default
   1204.30107
   1559.13979
    967.74192
   1618.27957
   1227.95698
    731.18277
   1204.30107
   1701.07528
   1559.13979
   1026.88171
   1937.63442
   1109.67741
   1381.72043
    991.39783
   1263.44085
   1168.81719
   1263.44085
   1204.30107
    849.46235
   1464.51613
   1322.58064
   1287.09677
   1523.65591
   1736.55915
   1204.30107
    991.39783
   1381.72043
SCALARS vs_obs float 
LOOKUP_TABLE default
   4441.37809
   4442.84780
   4444.18830
   4444.75358
   4516.30095
   4537.29680
   4543.49865
   4546.59957
   4552.84988
   4564.72060
   4590.33553
   4593.09729
   4594.16324
   4614.70686
   4617.66243
   4620.56955
   4637.25317
   4638.98129
   4643.92339
   4646.55595
   4655.56801
   4655.64876
   4669.40912
   4673.80209
   4674.78728
   4706.65251
   4706.84632
SCALARS vs_sol float 
LOOKUP_TABLE default
   5027.32966
   4760.74506
   5252.05933
   4724.54044
   5006.92499
   5514.39427
   5027.32966
   4677.80254
   4760.74506
   5192.35142
   4569.64922
   5112.70890
   4883.46088
   5227.89413
   4977.02307
   5058.64178
   4977.02307
   5027.32966
   5378.52614
   4823.56112
   4929.06681
   4957.55853
   4783.59598
   4659.18220
   5027.32966
   5227.89413
   4883.46088
SCALARS melt float 
LOOKUP_TABLE default
      0.04299
      0.02419
      0.05747
      0.02136
      0.03590
      0.06661
      0.03523
      0.00952
      0.01549
      0.04463
      0.00000
      0.03727
      0.02134
      0.04325
      0.02619
      0.03159
      0.02471
      0.02808
      0.05070
      0.01282
      0.01993
      0.02195
      0.00789
      0.00000
      0.02540
      0.03652
      0.01261
